24832057
  -OEChem-10021005262D

 75 78  0     0  0  0  0  0  0999 V2000
    8.9962   -0.7673    0.0000 Ba  0  2  0  0  0  0  0  0  0  0  0  0
   12.4603   -3.7673    0.0000 Cl  0  0  0  0  0  0  0  0  0  0  0  0
    5.5321   -3.7673    0.0000 Cl  0  0  0  0  0  0  0  0  0  0  0  0
   10.7282   -0.7673    0.0000 S   0  0  0  0  0  0  0  0  0  0  0  0
    7.2641   -0.7673    0.0000 S   0  0  0  0  0  0  0  0  0  0  0  0
   11.5942    1.7327    0.0000 O   0  0  0  0  0  0  0  0  0  0  0  0
    6.3981    1.7327    0.0000 O   0  0  0  0  0  0  0  0  0  0  0  0
    9.8622   -0.2673    0.0000 O   0  5  0  0  0  0  0  0  0  0  0  0
    8.1301   -0.2673    0.0000 O   0  5  0  0  0  0  0  0  0  0  0  0
    6.7641    0.0987    0.0000 O   0  0  0  0  0  0  0  0  0  0  0  0
    7.7641   -1.6334    0.0000 O   0  0  0  0  0  0  0  0  0  0  0  0
   10.2282   -1.6334    0.0000 O   0  0  0  0  0  0  0  0  0  0  0  0
   11.2282    0.0987    0.0000 O   0  0  0  0  0  0  0  0  0  0  0  0
   12.4603    0.2327    0.0000 N   0  0  0  0  0  0  0  0  0  0  0  0
    5.5321    0.2327    0.0000 N   0  0  0  0  0  0  0  0  0  0  0  0
   13.3263    0.7327    0.0000 N   0  0  0  0  0  0  0  0  0  0  0  0
    4.6660    0.7327    0.0000 N   0  0  0  0  0  0  0  0  0  0  0  0
   14.1923    2.2327    0.0000 C   0  0  0  0  0  0  0  0  0  0  0  0
    3.8000    2.2327    0.0000 C   0  0  0  0  0  0  0  0  0  0  0  0
    5.5321   -0.7673    0.0000 C   0  0  0  0  0  0  0  0  0  0  0  0
   12.4603   -0.7673    0.0000 C   0  0  0  0  0  0  0  0  0  0  0  0
    3.8000    3.2327    0.0000 C   0  0  0  0  0  0  0  0  0  0  0  0
   14.1923    3.2327    0.0000 C   0  0  0  0  0  0  0  0  0  0  0  0
   11.5942   -1.2673    0.0000 C   0  0  0  0  0  0  0  0  0  0  0  0
    6.3981   -1.2673    0.0000 C   0  0  0  0  0  0  0  0  0  0  0  0
   13.3263    1.7327    0.0000 C   0  0  0  0  0  0  0  0  0  0  0  0
    4.6660    1.7327    0.0000 C   0  0  0  0  0  0  0  0  0  0  0  0
    4.6660   -2.2673    0.0000 C   0  0  0  0  0  0  0  0  0  0  0  0
   13.3263   -2.2673    0.0000 C   0  0  0  0  0  0  0  0  0  0  0  0
   13.3263   -1.2673    0.0000 C   0  0  0  0  0  0  0  0  0  0  0  0
    4.6660   -1.2673    0.0000 C   0  0  0  0  0  0  0  0  0  0  0  0
   11.5942   -2.2673    0.0000 C   0  0  0  0  0  0  0  0  0  0  0  0
    6.3981   -2.2673    0.0000 C   0  0  0  0  0  0  0  0  0  0  0  0
   15.0863    1.6980    0.0000 C   0  0  0  0  0  0  0  0  0  0  0  0
    2.9061    1.6980    0.0000 C   0  0  0  0  0  0  0  0  0  0  0  0
    4.6660    3.7327    0.0000 C   0  0  0  0  0  0  0  0  0  0  0  0
   13.3263    3.7327    0.0000 C   0  0  0  0  0  0  0  0  0  0  0  0
    5.5321   -2.7673    0.0000 C   0  0  0  0  0  0  0  0  0  0  0  0
   12.4603   -2.7673    0.0000 C   0  0  0  0  0  0  0  0  0  0  0  0
   12.4603    2.2327    0.0000 C   0  0  0  0  0  0  0  0  0  0  0  0
    5.5321    2.2327    0.0000 C   0  0  0  0  0  0  0  0  0  0  0  0
   15.0863    3.7673    0.0000 C   0  0  0  0  0  0  0  0  0  0  0  0
    2.9061    3.7673    0.0000 C   0  0  0  0  0  0  0  0  0  0  0  0
   12.4603    3.2327    0.0000 C   0  0  0  0  0  0  0  0  0  0  0  0
    5.5321    3.2327    0.0000 C   0  0  0  0  0  0  0  0  0  0  0  0
    2.0000    2.2118    0.0000 C   0  0  0  0  0  0  0  0  0  0  0  0
   15.9923    2.2118    0.0000 C   0  0  0  0  0  0  0  0  0  0  0  0
   15.9923    3.2535    0.0000 C   0  0  0  0  0  0  0  0  0  0  0  0
    2.0000    3.2535    0.0000 C   0  0  0  0  0  0  0  0  0  0  0  0
   14.1923   -2.7673    0.0000 C   0  0  0  0  0  0  0  0  0  0  0  0
    3.8000   -2.7673    0.0000 C   0  0  0  0  0  0  0  0  0  0  0  0
   13.8632   -0.9573    0.0000 H   0  0  0  0  0  0  0  0  0  0  0  0
    4.1291   -0.9573    0.0000 H   0  0  0  0  0  0  0  0  0  0  0  0
   11.0573   -2.5773    0.0000 H   0  0  0  0  0  0  0  0  0  0  0  0
    6.9350   -2.5773    0.0000 H   0  0  0  0  0  0  0  0  0  0  0  0
   11.9233    0.5427    0.0000 H   0  0  0  0  0  0  0  0  0  0  0  0
    6.0690    0.5427    0.0000 H   0  0  0  0  0  0  0  0  0  0  0  0
   15.0791    1.0780    0.0000 H   0  0  0  0  0  0  0  0  0  0  0  0
    2.9132    1.0780    0.0000 H   0  0  0  0  0  0  0  0  0  0  0  0
   13.3263    4.3527    0.0000 H   0  0  0  0  0  0  0  0  0  0  0  0
    4.6660    4.3527    0.0000 H   0  0  0  0  0  0  0  0  0  0  0  0
   15.0791    4.3873    0.0000 H   0  0  0  0  0  0  0  0  0  0  0  0
    2.9132    4.3873    0.0000 H   0  0  0  0  0  0  0  0  0  0  0  0
   11.9233    3.5427    0.0000 H   0  0  0  0  0  0  0  0  0  0  0  0
    6.0690    3.5427    0.0000 H   0  0  0  0  0  0  0  0  0  0  0  0
   16.5281    1.8998    0.0000 H   0  0  0  0  0  0  0  0  0  0  0  0
    1.4643    1.8998    0.0000 H   0  0  0  0  0  0  0  0  0  0  0  0
    1.4643    3.5656    0.0000 H   0  0  0  0  0  0  0  0  0  0  0  0
   16.5281    3.5656    0.0000 H   0  0  0  0  0  0  0  0  0  0  0  0
    3.4900   -2.2304    0.0000 H   0  0  0  0  0  0  0  0  0  0  0  0
    3.2631   -3.0773    0.0000 H   0  0  0  0  0  0  0  0  0  0  0  0
   13.8823   -3.3043    0.0000 H   0  0  0  0  0  0  0  0  0  0  0  0
    4.1100   -3.3043    0.0000 H   0  0  0  0  0  0  0  0  0  0  0  0
   14.7292   -3.0773    0.0000 H   0  0  0  0  0  0  0  0  0  0  0  0
   14.5023   -2.2304    0.0000 H   0  0  0  0  0  0  0  0  0  0  0  0
  2 39  1  0  0  0  0
  3 38  1  0  0  0  0
  4  8  1  0  0  0  0
  4 12  2  0  0  0  0
  4 13  2  0  0  0  0
  4 24  1  0  0  0  0
  5  9  1  0  0  0  0
  5 10  2  0  0  0  0
  5 11  2  0  0  0  0
  5 25  1  0  0  0  0
  6 40  2  0  0  0  0
  7 41  2  0  0  0  0
 14 16  1  0  0  0  0
 14 21  1  0  0  0  0
 14 56  1  0  0  0  0
 15 17  1  0  0  0  0
 15 20  1  0  0  0  0
 15 57  1  0  0  0  0
 16 26  2  3  0  0  0
 17 27  2  3  0  0  0
 18 23  1  0  0  0  0
 18 26  1  0  0  0  0
 18 34  2  0  0  0  0
 19 22  1  0  0  0  0
 19 27  1  0  0  0  0
 19 35  2  0  0  0  0
 20 25  2  0  0  0  0
 20 31  1  0  0  0  0
 21 24  2  0  0  0  0
 21 30  1  0  0  0  0
 22 36  1  0  0  0  0
 22 43  2  0  0  0  0
 23 37  1  0  0  0  0
 23 42  2  0  0  0  0
 24 32  1  0  0  0  0
 25 33  1  0  0  0  0
 26 40  1  0  0  0  0
 27 41  1  0  0  0  0
 28 31  2  0  0  0  0
 28 38  1  0  0  0  0
 28 51  1  0  0  0  0
 29 30  2  0  0  0  0
 29 39  1  0  0  0  0
 29 50  1  0  0  0  0
 30 52  1  0  0  0  0
 31 53  1  0  0  0  0
 32 39  2  0  0  0  0
 32 54  1  0  0  0  0
 33 38  2  0  0  0  0
 33 55  1  0  0  0  0
 34 47  1  0  0  0  0
 34 58  1  0  0  0  0
 35 46  1  0  0  0  0
 35 59  1  0  0  0  0
 36 45  2  0  0  0  0
 36 61  1  0  0  0  0
 37 44  2  0  0  0  0
 37 60  1  0  0  0  0
 40 44  1  0  0  0  0
 41 45  1  0  0  0  0
 42 48  1  0  0  0  0
 42 62  1  0  0  0  0
 43 49  1  0  0  0  0
 43 63  1  0  0  0  0
 44 64  1  0  0  0  0
 45 65  1  0  0  0  0
 46 49  2  0  0  0  0
 46 67  1  0  0  0  0
 47 48  2  0  0  0  0
 47 66  1  0  0  0  0
 48 69  1  0  0  0  0
 49 68  1  0  0  0  0
 50 72  1  0  0  0  0
 50 74  1  0  0  0  0
 50 75  1  0  0  0  0
 51 70  1  0  0  0  0
 51 71  1  0  0  0  0
 51 73  1  0  0  0  0
M  CHG  3   1   2   8  -1   9  -1
M  END
> <PUBCHEM_COMPOUND_CID>
24832057

> <PUBCHEM_COMPOUND_CANONICALIZED>
1

> <PUBCHEM_CACTVS_COMPLEXITY>
672

> <PUBCHEM_CACTVS_HBOND_ACCEPTOR>
12

> <PUBCHEM_CACTVS_HBOND_DONOR>
2

> <PUBCHEM_CACTVS_ROTATABLE_BOND>
4

> <PUBCHEM_CACTVS_SUBSKEYS>
AAADceB/vABmAAAAAAAEAAAAAAAAAAAAAAAyZMGCAAAAAACJVAAAHgYYAAAADA6B2CAywYBiAAKoA6RyQHDSBEAgBwAYiB0gZtgIILKBl5GAIABgmAAIyYcYiICOkABAQBARAQAgAICAICICAAAAAAAAAA==

> <PUBCHEM_IUPAC_OPENEYE_NAME>
barium(2+); 5-chloro-4-methyl-2-[2-(2-oxo-1-naphthylidene)hydrazino]benzenesulfonate

> <PUBCHEM_IUPAC_CAS_NAME>
barium(2+); 5-chloro-4-methyl-2-[2-(2-oxo-1-naphthalenylidene)hydrazinyl]benzenesulfonate

> <PUBCHEM_IUPAC_NAME>
barium(2+); 5-chloro-4-methyl-2-[2-(2-oxonaphthalen-1-ylidene)hydrazinyl]benzenesulfonate

> <PUBCHEM_IUPAC_SYSTEMATIC_NAME>
barium(2+); 5-chloranyl-4-methyl-2-[2-(2-oxidanylidenenaphthalen-1-ylidene)hydrazinyl]benzenesulfonate

> <PUBCHEM_IUPAC_TRADITIONAL_NAME>
barium(2+); 5-chloro-2-[N'-(2-keto-1-naphthylidene)hydrazino]-4-methyl-besylate

> <PUBCHEM_NIST_INCHI>
InChI=1S/2C17H13ClN2O4S.Ba/c2*1-10-8-14(16(9-13(10)18)25(22,23)24)19-20-17-12-5-3-2-4-11(12)6-7-15(17)21;/h2*2-9,19H,1H3,(H,22,23,24);/q;;+2/p-2

> <PUBCHEM_NIST_INCHIKEY>
JNIGYQOBELCEIZ-UHFFFAOYSA-L

> <PUBCHEM_EXACT_MASS>
887.946502

> <PUBCHEM_MOLECULAR_FORMULA>
C34H24BaCl2N4O8S2

> <PUBCHEM_MOLECULAR_WEIGHT>
888.93936

> <PUBCHEM_OPENEYE_CAN_SMILES>
CC1=CC(=C(C=C1Cl)S(=O)(=O)[O-])NN=C2C(=O)C=CC3=CC=CC=C32.CC1=CC(=C(C=C1Cl)S(=O)(=O)[O-])NN=C2C(=O)C=CC3=CC=CC=C32.[Ba+2]

> <PUBCHEM_OPENEYE_ISO_SMILES>
CC1=CC(=C(C=C1Cl)S(=O)(=O)[O-])NN=C2C(=O)C=CC3=CC=CC=C32.CC1=CC(=C(C=C1Cl)S(=O)(=O)[O-])NN=C2C(=O)C=CC3=CC=CC=C32.[Ba+2]

> <PUBCHEM_CACTVS_TPSA>
214

> <PUBCHEM_MONOISOTOPIC_WEIGHT>
887.946502

> <PUBCHEM_TOTAL_CHARGE>
0

> <PUBCHEM_HEAVY_ATOM_COUNT>
51

> <PUBCHEM_ATOM_DEF_STEREO_COUNT>
0

> <PUBCHEM_ATOM_UDEF_STEREO_COUNT>
0

> <PUBCHEM_BOND_DEF_STEREO_COUNT>
0

> <PUBCHEM_BOND_UDEF_STEREO_COUNT>
2

> <PUBCHEM_ISOTOPIC_ATOM_COUNT>
0

> <PUBCHEM_COMPONENT_COUNT>
3

> <PUBCHEM_CACTVS_TAUTO_COUNT>
9

> <PUBCHEM_COORDINATE_TYPE>
1
3

> <PUBCHEM_BONDANNOTATIONS>
16  26  1
17  27  1
18  23  8
18  34  8
19  22  8
19  35  8
20  25  8
20  31  8
21  24  8
21  30  8
22  43  8
23  42  8
24  32  8
25  33  8
28  31  8
28  38  8
29  30  8
29  39  8
32  39  8
33  38  8
34  47  8
35  46  8
42  48  8
43  49  8
46  49  8
47  48  8

$$$$

