45278408
  -OEChem-10021005332D

195225  0     1  0  0  0  0  0999 V2000
    9.2959   -2.4790    0.0000 F   0  0  0  0  0  0  0  0  0  0  0  0
   11.6537    1.6161    0.0000 F   0  0  0  0  0  0  0  0  0  0  0  0
    6.4859    2.5890    0.0000 F   0  0  0  0  0  0  0  0  0  0  0  0
   10.1522   -2.2487    0.0000 F   0  0  0  0  0  0  0  0  0  0  0  0
    7.3656   -2.4255    0.0000 F   0  0  0  0  0  0  0  0  0  0  0  0
   10.6583    3.2589    0.0000 F   0  0  0  0  0  0  0  0  0  0  0  0
   11.8782    0.7424    0.0000 F   0  0  0  0  0  0  0  0  0  0  0  0
    6.0023    0.3231    0.0000 F   0  0  0  0  0  0  0  0  0  0  0  0
    8.8384    2.7471    0.0000 F   0  0  0  0  0  0  0  0  0  0  0  0
   10.8903   -1.6132    0.0000 F   0  0  0  0  0  0  0  0  0  0  0  0
    6.1136   -2.1568    0.0000 F   0  0  0  0  0  0  0  0  0  0  0  0
    9.7723    4.2190    0.0000 F   0  0  0  0  0  0  0  0  0  0  0  0
   11.6862   -0.2314    0.0000 F   0  0  0  0  0  0  0  0  0  0  0  0
    5.4635   -0.9935    0.0000 F   0  0  0  0  0  0  0  0  0  0  0  0
    8.4524    4.2014    0.0000 F   0  0  0  0  0  0  0  0  0  0  0  0
    6.5850   -4.0591    0.0000 O   0  0  0  0  0  0  0  0  0  0  0  0
    7.2996   -4.6006    0.0000 O   0  0  0  0  0  0  0  0  0  0  0  0
   11.6185    4.7404    0.0000 O   0  0  0  0  0  0  0  0  0  0  0  0
   12.4496    4.4041    0.0000 O   0  0  0  0  0  0  0  0  0  0  0  0
    4.4012    4.1569    0.0000 O   0  0  0  0  0  0  0  0  0  0  0  0
    3.8808    3.8550    0.0000 O   0  0  0  0  0  0  0  0  0  0  0  0
    8.7618   -4.5279    0.0000 O   0  0  0  0  0  0  0  0  0  0  0  0
   13.1362    3.1111    0.0000 O   0  0  0  0  0  0  0  0  0  0  0  0
    3.2650    2.5269    0.0000 O   0  0  0  0  0  0  0  0  0  0  0  0
    9.0154   -4.3642    0.0000 O   0  0  0  0  0  0  0  0  0  0  0  0
    6.0359   -2.7558    0.0000 O   0  0  0  0  0  0  0  0  0  0  0  0
   13.1255    2.8093    0.0000 O   0  0  0  0  0  0  0  0  0  0  0  0
   10.6261    4.8629    0.0000 O   0  0  0  0  0  0  0  0  0  0  0  0
    3.2920    2.2261    0.0000 O   0  0  0  0  0  0  0  0  0  0  0  0
    5.8097    4.2832    0.0000 O   0  0  0  0  0  0  0  0  0  0  0  0
    9.6836   -3.0615    0.0000 O   0  0  0  0  0  0  0  0  0  0  0  0
   12.3490    1.5683    0.0000 O   0  0  0  0  0  0  0  0  0  0  0  0
    3.6340    1.1616    0.0000 O   0  0  0  0  0  0  0  0  0  0  0  0
    8.4680   -1.9182    0.0000 C   0  0  0  0  0  0  0  0  0  0  0  0
   10.7479    2.0397    0.0000 C   0  0  0  0  0  0  0  0  0  0  0  0
    6.8652    1.6637    0.0000 C   0  0  0  0  0  0  0  0  0  0  0  0
    9.6180   -1.4033    0.0000 C   0  0  3  0  0  0  0  0  0  0  0  0
    7.8856   -1.5713    0.0000 C   0  0  3  0  0  0  0  0  0  0  0  0
   10.1668    2.3880    0.0000 C   0  0  3  0  0  0  0  0  0  0  0  0
   10.8791    0.7862    0.0000 C   0  0  3  0  0  0  0  0  0  0  0  0
    6.9984    0.4107    0.0000 C   0  0  3  0  0  0  0  0  0  0  0  0
    8.0153    2.1792    0.0000 C   0  0  3  0  0  0  0  0  0  0  0  0
   10.1211   -0.9741    0.0000 C   0  0  3  0  0  0  0  0  0  0  0  0
    6.6461   -1.3103    0.0000 C   0  0  3  0  0  0  0  0  0  0  0  0
    9.3184    3.3279    0.0000 C   0  0  3  0  0  0  0  0  0  0  0  0
   10.7492    0.1180    0.0000 C   0  0  3  0  0  0  0  0  0  0  0  0
    6.2038   -0.3213    0.0000 C   0  0  3  0  0  0  0  0  0  0  0  0
    8.2443    3.2233    0.0000 C   0  0  3  0  0  0  0  0  0  0  0  0
    7.8162   -2.0058    0.0000 C   0  0  0  0  0  0  0  0  0  0  0  0
   10.4857    2.6312    0.0000 C   0  0  0  0  0  0  0  0  0  0  0  0
    5.9375    2.1906    0.0000 C   0  0  0  0  0  0  0  0  0  0  0  0
    9.7471   -0.7383    0.0000 C   0  0  0  0  0  0  0  0  0  0  0  0
    8.6760   -0.8424    0.0000 C   0  0  0  0  0  0  0  0  0  0  0  0
    9.9389    1.3494    0.0000 C   0  0  0  0  0  0  0  0  0  0  0  0
   10.3799    0.3591    0.0000 C   0  0  0  0  0  0  0  0  0  0  0  0
    8.2316    0.1518    0.0000 C   0  0  0  0  0  0  0  0  0  0  0  0
    8.8606    1.2449    0.0000 C   0  0  0  0  0  0  0  0  0  0  0  0
    9.4735   -1.0615    0.0000 C   0  0  0  0  0  0  0  0  0  0  0  0
    5.9961   -1.3962    0.0000 C   0  0  0  0  0  0  0  0  0  0  0  0
    9.0569    3.9168    0.0000 C   0  0  0  0  0  0  0  0  0  0  0  0
   10.4904    0.7063    0.0000 C   0  0  0  0  0  0  0  0  0  0  0  0
    5.2803    0.2039    0.0000 C   0  0  0  0  0  0  0  0  0  0  0  0
    7.3213    3.7472    0.0000 C   0  0  0  0  0  0  0  0  0  0  0  0
    8.3180   -1.5787    0.0000 C   0  0  0  0  0  0  0  0  0  0  0  0
    6.5830   -1.7446    0.0000 C   0  0  0  0  0  0  0  0  0  0  0  0
    9.6420    3.5673    0.0000 C   0  0  0  0  0  0  0  0  0  0  0  0
   10.3578    1.9655    0.0000 C   0  0  0  0  0  0  0  0  0  0  0  0
    5.1464    1.4630    0.0000 C   0  0  0  0  0  0  0  0  0  0  0  0
    6.1653    3.2299    0.0000 C   0  0  0  0  0  0  0  0  0  0  0  0
    9.7027   -0.0222    0.0000 C   0  0  0  0  0  0  0  0  0  0  0  0
    5.1518   -0.4603    0.0000 C   0  0  0  0  0  0  0  0  0  0  0  0
    7.8230    4.1760    0.0000 C   0  0  0  0  0  0  0  0  0  0  0  0
    7.3960   -1.0532    0.0000 C   0  0  0  0  0  0  0  0  0  0  0  0
    6.3236   -1.1561    0.0000 C   0  0  0  0  0  0  0  0  0  0  0  0
    8.9936    3.4798    0.0000 C   0  0  0  0  0  0  0  0  0  0  0  0
    9.4360    2.4901    0.0000 C   0  0  0  0  0  0  0  0  0  0  0  0
    4.8845    2.0524    0.0000 C   0  0  0  0  0  0  0  0  0  0  0  0
    5.5142    3.1444    0.0000 C   0  0  0  0  0  0  0  0  0  0  0  0
    7.9528   -2.9964    0.0000 C   0  0  0  0  0  0  0  0  0  0  0  0
   11.4065    3.0214    0.0000 C   0  0  0  0  0  0  0  0  0  0  0  0
    4.9970    2.5306    0.0000 C   0  0  0  0  0  0  0  0  0  0  0  0
    8.7763    0.5046    0.0000 C   0  0  0  0  0  0  0  0  0  0  0  0
    4.8907    0.1317    0.0000 C   0  0  0  0  0  0  0  0  0  0  0  0
    7.1708    4.0883    0.0000 C   0  0  0  0  0  0  0  0  0  0  0  0
    7.6252   -0.0093    0.0000 C   0  0  0  0  0  0  0  0  0  0  0  0
    5.4761   -0.2158    0.0000 C   0  0  0  0  0  0  0  0  0  0  0  0
    7.7549    3.7410    0.0000 C   0  0  0  0  0  0  0  0  0  0  0  0
    8.6433    1.7581    0.0000 C   0  0  0  0  0  0  0  0  0  0  0  0
    4.7577    1.3848    0.0000 C   0  0  0  0  0  0  0  0  0  0  0  0
    6.0194    3.5739    0.0000 C   0  0  0  0  0  0  0  0  0  0  0  0
    6.7814    0.9268    0.0000 C   0  0  0  0  0  0  0  0  0  0  0  0
    5.7046    0.8232    0.0000 C   0  0  0  0  0  0  0  0  0  0  0  0
    6.9658    3.0123    0.0000 C   0  0  0  0  0  0  0  0  0  0  0  0
    7.4108    2.0187    0.0000 C   0  0  0  0  0  0  0  0  0  0  0  0
    5.2606    1.8122    0.0000 C   0  0  0  0  0  0  0  0  0  0  0  0
    5.8931    2.9094    0.0000 C   0  0  0  0  0  0  0  0  0  0  0  0
    8.0894   -3.9870    0.0000 C   0  0  0  0  0  0  0  0  0  0  0  0
    6.9621   -3.1329    0.0000 C   0  0  0  0  0  0  0  0  0  0  0  0
   12.3272    3.4116    0.0000 C   0  0  0  0  0  0  0  0  0  0  0  0
   11.0163    3.9421    0.0000 C   0  0  0  0  0  0  0  0  0  0  0  0
    4.0566    2.8706    0.0000 C   0  0  0  0  0  0  0  0  0  0  0  0
    5.1686    3.5157    0.0000 C   0  0  0  0  0  0  0  0  0  0  0  0
    8.7994   -3.5286    0.0000 C   0  0  0  0  0  0  0  0  0  0  0  0
   12.2972    2.5669    0.0000 C   0  0  0  0  0  0  0  0  0  0  0  0
    4.1321    2.0287    0.0000 C   0  0  0  0  0  0  0  0  0  0  0  0
    5.5944   -4.1956    0.0000 C   0  0  0  0  0  0  0  0  0  0  0  0
    7.4362   -5.5912    0.0000 C   0  0  0  0  0  0  0  0  0  0  0  0
   13.3704    4.7943    0.0000 C   0  0  0  0  0  0  0  0  0  0  0  0
   11.2283    5.6612    0.0000 C   0  0  0  0  0  0  0  0  0  0  0  0
    2.9404    4.1950    0.0000 C   0  0  0  0  0  0  0  0  0  0  0  0
    4.5727    5.1421    0.0000 C   0  0  0  0  0  0  0  0  0  0  0  0
    9.6084   -5.0601    0.0000 C   0  0  0  0  0  0  0  0  0  0  0  0
   14.0270    2.6566    0.0000 C   0  0  0  0  0  0  0  0  0  0  0  0
    2.4000    2.0250    0.0000 C   0  0  0  0  0  0  0  0  0  0  0  0
    7.5727   -6.5819    0.0000 C   0  0  0  0  0  0  0  0  0  0  0  0
    8.4268   -5.4547    0.0000 C   0  0  0  0  0  0  0  0  0  0  0  0
    6.4455   -5.7278    0.0000 C   0  0  0  0  0  0  0  0  0  0  0  0
    4.6037   -4.3321    0.0000 C   0  0  0  0  0  0  0  0  0  0  0  0
    5.7309   -5.1863    0.0000 C   0  0  0  0  0  0  0  0  0  0  0  0
    5.4578   -3.2049    0.0000 C   0  0  0  0  0  0  0  0  0  0  0  0
   14.2911    5.1845    0.0000 C   0  0  0  0  0  0  0  0  0  0  0  0
   12.9802    5.7150    0.0000 C   0  0  0  0  0  0  0  0  0  0  0  0
   13.7606    3.8736    0.0000 C   0  0  0  0  0  0  0  0  0  0  0  0
   10.8381    6.5819    0.0000 C   0  0  0  0  0  0  0  0  0  0  0  0
   12.1491    6.0514    0.0000 C   0  0  0  0  0  0  0  0  0  0  0  0
   10.2359    5.7836    0.0000 C   0  0  0  0  0  0  0  0  0  0  0  0
    4.7442    6.1272    0.0000 C   0  0  0  0  0  0  0  0  0  0  0  0
    3.5875    5.3136    0.0000 C   0  0  0  0  0  0  0  0  0  0  0  0
    5.5579    4.9705    0.0000 C   0  0  0  0  0  0  0  0  0  0  0  0
    2.0000    4.5350    0.0000 C   0  0  0  0  0  0  0  0  0  0  0  0
    3.2804    5.1354    0.0000 C   0  0  0  0  0  0  0  0  0  0  0  0
    2.6004    3.2546    0.0000 C   0  0  0  0  0  0  0  0  0  0  0  0
    9.2784   -5.5850    0.0000 H   0  0  0  0  0  0  0  0  0  0  0  0
   10.1333   -5.3901    0.0000 H   0  0  0  0  0  0  0  0  0  0  0  0
    9.9384   -4.5352    0.0000 H   0  0  0  0  0  0  0  0  0  0  0  0
   13.7452    2.1043    0.0000 H   0  0  0  0  0  0  0  0  0  0  0  0
   14.5792    2.3748    0.0000 H   0  0  0  0  0  0  0  0  0  0  0  0
   14.3087    3.2088    0.0000 H   0  0  0  0  0  0  0  0  0  0  0  0
    2.0889    2.5613    0.0000 H   0  0  0  0  0  0  0  0  0  0  0  0
    1.8638    1.7138    0.0000 H   0  0  0  0  0  0  0  0  0  0  0  0
    2.7112    1.4888    0.0000 H   0  0  0  0  0  0  0  0  0  0  0  0
    6.0720   -3.1203    0.0000 H   0  0  0  0  0  0  0  0  0  0  0  0
    5.3732   -2.5907    0.0000 H   0  0  0  0  0  0  0  0  0  0  0  0
    4.8436   -3.2896    0.0000 H   0  0  0  0  0  0  0  0  0  0  0  0
    5.1167   -5.2709    0.0000 H   0  0  0  0  0  0  0  0  0  0  0  0
    5.8155   -5.8005    0.0000 H   0  0  0  0  0  0  0  0  0  0  0  0
    6.3451   -5.1016    0.0000 H   0  0  0  0  0  0  0  0  0  0  0  0
    4.5191   -3.7179    0.0000 H   0  0  0  0  0  0  0  0  0  0  0  0
    3.9895   -4.4167    0.0000 H   0  0  0  0  0  0  0  0  0  0  0  0
    4.6883   -4.9463    0.0000 H   0  0  0  0  0  0  0  0  0  0  0  0
    6.3609   -5.1136    0.0000 H   0  0  0  0  0  0  0  0  0  0  0  0
    5.8313   -5.8124    0.0000 H   0  0  0  0  0  0  0  0  0  0  0  0
    6.5302   -6.3420    0.0000 H   0  0  0  0  0  0  0  0  0  0  0  0
    8.5114   -6.0689    0.0000 H   0  0  0  0  0  0  0  0  0  0  0  0
    9.0409   -5.3701    0.0000 H   0  0  0  0  0  0  0  0  0  0  0  0
    8.3421   -4.8405    0.0000 H   0  0  0  0  0  0  0  0  0  0  0  0
    6.9585   -6.6665    0.0000 H   0  0  0  0  0  0  0  0  0  0  0  0
    7.6573   -7.1961    0.0000 H   0  0  0  0  0  0  0  0  0  0  0  0
    8.1869   -6.4972    0.0000 H   0  0  0  0  0  0  0  0  0  0  0  0
   10.3118    6.3990    0.0000 H   0  0  0  0  0  0  0  0  0  0  0  0
    9.6205    5.8595    0.0000 H   0  0  0  0  0  0  0  0  0  0  0  0
   10.1599    5.1683    0.0000 H   0  0  0  0  0  0  0  0  0  0  0  0
   12.3910    5.4805    0.0000 H   0  0  0  0  0  0  0  0  0  0  0  0
   12.7199    6.2933    0.0000 H   0  0  0  0  0  0  0  0  0  0  0  0
   11.9071    6.6222    0.0000 H   0  0  0  0  0  0  0  0  0  0  0  0
   11.4090    6.8238    0.0000 H   0  0  0  0  0  0  0  0  0  0  0  0
   10.5962    7.1527    0.0000 H   0  0  0  0  0  0  0  0  0  0  0  0
   10.2673    6.3400    0.0000 H   0  0  0  0  0  0  0  0  0  0  0  0
   13.1897    3.6316    0.0000 H   0  0  0  0  0  0  0  0  0  0  0  0
   14.0025    3.3027    0.0000 H   0  0  0  0  0  0  0  0  0  0  0  0
   14.3314    4.1155    0.0000 H   0  0  0  0  0  0  0  0  0  0  0  0
   13.5510    5.9570    0.0000 H   0  0  0  0  0  0  0  0  0  0  0  0
   12.7382    6.2859    0.0000 H   0  0  0  0  0  0  0  0  0  0  0  0
   12.4093    5.4731    0.0000 H   0  0  0  0  0  0  0  0  0  0  0  0
   14.5330    4.6137    0.0000 H   0  0  0  0  0  0  0  0  0  0  0  0
   14.8619    5.4264    0.0000 H   0  0  0  0  0  0  0  0  0  0  0  0
   14.0492    5.7554    0.0000 H   0  0  0  0  0  0  0  0  0  0  0  0
    5.4515    4.3597    0.0000 H   0  0  0  0  0  0  0  0  0  0  0  0
    6.1687    4.8642    0.0000 H   0  0  0  0  0  0  0  0  0  0  0  0
    5.6642    5.5813    0.0000 H   0  0  0  0  0  0  0  0  0  0  0  0
    3.6938    5.9244    0.0000 H   0  0  0  0  0  0  0  0  0  0  0  0
    2.9767    5.4199    0.0000 H   0  0  0  0  0  0  0  0  0  0  0  0
    3.4812    4.7028    0.0000 H   0  0  0  0  0  0  0  0  0  0  0  0
    5.3550    6.0209    0.0000 H   0  0  0  0  0  0  0  0  0  0  0  0
    4.8506    6.7380    0.0000 H   0  0  0  0  0  0  0  0  0  0  0  0
    4.1334    6.2336    0.0000 H   0  0  0  0  0  0  0  0  0  0  0  0
    2.2108    5.1181    0.0000 H   0  0  0  0  0  0  0  0  0  0  0  0
    1.4169    4.7458    0.0000 H   0  0  0  0  0  0  0  0  0  0  0  0
    1.7892    3.9519    0.0000 H   0  0  0  0  0  0  0  0  0  0  0  0
    3.8635    4.9246    0.0000 H   0  0  0  0  0  0  0  0  0  0  0  0
    3.4912    5.7185    0.0000 H   0  0  0  0  0  0  0  0  0  0  0  0
    2.6974    5.3462    0.0000 H   0  0  0  0  0  0  0  0  0  0  0  0
    2.0174    3.4654    0.0000 H   0  0  0  0  0  0  0  0  0  0  0  0
    2.3896    2.6715    0.0000 H   0  0  0  0  0  0  0  0  0  0  0  0
    3.1835    3.0438    0.0000 H   0  0  0  0  0  0  0  0  0  0  0  0
  1 34  1  0  0  0  0
  2 35  1  0  0  0  0
  3 36  1  0  0  0  0
  4 37  1  0  0  0  0
  5 38  1  0  0  0  0
  6 39  1  0  0  0  0
  7 40  1  0  0  0  0
  8 41  1  0  0  0  0
  9 42  1  0  0  0  0
 10 43  1  0  0  0  0
 11 44  1  0  0  0  0
 12 45  1  0  0  0  0
 13 46  1  0  0  0  0
 14 47  1  0  0  0  0
 15 48  1  0  0  0  0
 16 98  1  0  0  0  0
 16106  1  0  0  0  0
 17 97  1  0  0  0  0
 17107  1  0  0  0  0
 18100  1  0  0  0  0
 18109  1  0  0  0  0
 19 99  1  0  0  0  0
 19108  1  0  0  0  0
 20102  1  0  0  0  0
 20111  1  0  0  0  0
 21101  1  0  0  0  0
 21110  1  0  0  0  0
 22103  1  0  0  0  0
 22112  1  0  0  0  0
 23104  1  0  0  0  0
 23113  1  0  0  0  0
 24105  1  0  0  0  0
 24114  1  0  0  0  0
 25 97  2  0  0  0  0
 26 98  2  0  0  0  0
 27 99  2  0  0  0  0
 28100  2  0  0  0  0
 29101  2  0  0  0  0
 30102  2  0  0  0  0
 31103  2  0  0  0  0
 32104  2  0  0  0  0
 33105  2  0  0  0  0
 34 37  1  0  0  0  0
 34 38  1  0  0  0  0
 34 49  1  0  0  0  0
 35 39  1  0  0  0  0
 35 40  1  0  0  0  0
 35 50  1  0  0  0  0
 36 41  1  0  0  0  0
 36 42  1  0  0  0  0
 36 51  1  0  0  0  0
 37 43  1  0  0  0  0
 37 52  1  0  0  0  0
 38 44  1  0  0  0  0
 38 53  1  0  0  0  0
 39 45  1  0  0  0  0
 39 54  1  0  0  0  0
 40 46  1  0  0  0  0
 40 55  1  0  0  0  0
 41 47  1  0  0  0  0
 41 56  1  0  0  0  0
 42 48  1  0  0  0  0
 42 57  1  0  0  0  0
 43 46  1  0  0  0  0
 43 58  1  0  0  0  0
 44 47  1  0  0  0  0
 44 59  1  0  0  0  0
 45 48  1  0  0  0  0
 45 60  1  0  0  0  0
 46 61  1  0  0  0  0
 47 62  1  0  0  0  0
 48 63  1  0  0  0  0
 49 64  1  0  0  0  0
 49 65  1  0  0  0  0
 49 79  1  0  0  0  0
 50 66  1  0  0  0  0
 50 67  1  0  0  0  0
 50 80  1  0  0  0  0
 51 68  1  0  0  0  0
 51 69  1  0  0  0  0
 51 81  1  0  0  0  0
 52 53  1  0  0  0  0
 52 55  2  0  0  0  0
 53 56  2  0  0  0  0
 54 55  1  0  0  0  0
 54 57  2  0  0  0  0
 56 57  1  0  0  0  0
 58 64  2  0  0  0  0
 58 70  1  0  0  0  0
 59 65  2  0  0  0  0
 59 71  1  0  0  0  0
 60 66  2  0  0  0  0
 60 72  1  0  0  0  0
 61 67  1  0  0  0  0
 61 70  2  0  0  0  0
 62 68  1  0  0  0  0
 62 71  2  0  0  0  0
 63 69  1  0  0  0  0
 63 72  2  0  0  0  0
 64 73  1  0  0  0  0
 65 74  1  0  0  0  0
 66 75  1  0  0  0  0
 67 76  2  0  0  0  0
 68 77  2  0  0  0  0
 69 78  2  0  0  0  0
 70 82  1  0  0  0  0
 71 83  1  0  0  0  0
 72 84  1  0  0  0  0
 73 74  1  0  0  0  0
 73 85  2  0  0  0  0
 74 86  2  0  0  0  0
 75 76  1  0  0  0  0
 75 87  2  0  0  0  0
 76 88  1  0  0  0  0
 77 78  1  0  0  0  0
 77 89  1  0  0  0  0
 78 90  1  0  0  0  0
 79 97  1  0  0  0  0
 79 98  1  0  0  0  0
 79103  1  0  0  0  0
 80 99  1  0  0  0  0
 80100  1  0  0  0  0
 80104  1  0  0  0  0
 81101  1  0  0  0  0
 81102  1  0  0  0  0
 81105  1  0  0  0  0
 82 85  1  0  0  0  0
 82 88  2  0  0  0  0
 83 86  1  0  0  0  0
 83 89  2  0  0  0  0
 84 87  1  0  0  0  0
 84 90  2  0  0  0  0
 85 91  1  0  0  0  0
 86 92  1  0  0  0  0
 87 93  1  0  0  0  0
 88 94  1  0  0  0  0
 89 95  1  0  0  0  0
 90 96  1  0  0  0  0
 91 92  1  0  0  0  0
 91 94  2  0  0  0  0
 92 95  2  0  0  0  0
 93 94  1  0  0  0  0
 93 96  2  0  0  0  0
 95 96  1  0  0  0  0
106118  1  0  0  0  0
106119  1  0  0  0  0
106120  1  0  0  0  0
107115  1  0  0  0  0
107116  1  0  0  0  0
107117  1  0  0  0  0
108121  1  0  0  0  0
108122  1  0  0  0  0
108123  1  0  0  0  0
109124  1  0  0  0  0
109125  1  0  0  0  0
109126  1  0  0  0  0
110130  1  0  0  0  0
110131  1  0  0  0  0
110132  1  0  0  0  0
111127  1  0  0  0  0
111128  1  0  0  0  0
111129  1  0  0  0  0
112133  1  0  0  0  0
112134  1  0  0  0  0
112135  1  0  0  0  0
113136  1  0  0  0  0
113137  1  0  0  0  0
113138  1  0  0  0  0
114139  1  0  0  0  0
114140  1  0  0  0  0
114141  1  0  0  0  0
115157  1  0  0  0  0
115158  1  0  0  0  0
115159  1  0  0  0  0
116154  1  0  0  0  0
116155  1  0  0  0  0
116156  1  0  0  0  0
117151  1  0  0  0  0
117152  1  0  0  0  0
117153  1  0  0  0  0
118148  1  0  0  0  0
118149  1  0  0  0  0
118150  1  0  0  0  0
119145  1  0  0  0  0
119146  1  0  0  0  0
119147  1  0  0  0  0
120142  1  0  0  0  0
120143  1  0  0  0  0
120144  1  0  0  0  0
121175  1  0  0  0  0
121176  1  0  0  0  0
121177  1  0  0  0  0
122172  1  0  0  0  0
122173  1  0  0  0  0
122174  1  0  0  0  0
123169  1  0  0  0  0
123170  1  0  0  0  0
123171  1  0  0  0  0
124166  1  0  0  0  0
124167  1  0  0  0  0
124168  1  0  0  0  0
125163  1  0  0  0  0
125164  1  0  0  0  0
125165  1  0  0  0  0
126160  1  0  0  0  0
126161  1  0  0  0  0
126162  1  0  0  0  0
127184  1  0  0  0  0
127185  1  0  0  0  0
127186  1  0  0  0  0
128181  1  0  0  0  0
128182  1  0  0  0  0
128183  1  0  0  0  0
129178  1  0  0  0  0
129179  1  0  0  0  0
129180  1  0  0  0  0
130187  1  0  0  0  0
130188  1  0  0  0  0
130189  1  0  0  0  0
131190  1  0  0  0  0
131191  1  0  0  0  0
131192  1  0  0  0  0
132193  1  0  0  0  0
132194  1  0  0  0  0
132195  1  0  0  0  0
M  END
> <PUBCHEM_COMPOUND_CID>
45278408

> <PUBCHEM_COMPOUND_CANONICALIZED>
1

> <PUBCHEM_CACTVS_COMPLEXITY>
5120

> <PUBCHEM_CACTVS_HBOND_ACCEPTOR>
33

> <PUBCHEM_CACTVS_HBOND_DONOR>
0

> <PUBCHEM_CACTVS_ROTATABLE_BOND>
27

> <PUBCHEM_CACTVS_SUBSKEYS>
AAADcfB8P8AAAAAAAAAAAAAAAAAAAYMGDBgwYMGDAAAAAAABVAAAGwAAAAAADkSAmAICCMAABACIAgDQCAACAAAgAAAAiAEAAIgIIDaIEBCCIAAloAAIiAeIyPCPwAACAAAQAACAAAQAACAAAQAACAAAAA==

> <PUBCHEM_IUPAC_OPENEYE_NAME>
ditert-butyl methyl [35,46-bis[1,1-bis(tert-butoxycarbonyl)-2-methoxy-2-oxo-ethyl]-2,3,4,11,12,16,17,28,29,33,34,47,48,49,50-pentadecafluoro-[60]fulleren-1-yl]methanetricarboxylate

> <PUBCHEM_IUPAC_CAS_NAME>
[7,8,9,10,11,22,23,28,29,42,43,46,47,57,58-pentadecafluoro-41,48-bis[1-methoxy-3-[(2-methylpropan-2-yl)oxy]-2-[(2-methylpropan-2-yl)oxy-oxomethyl]-1,3-dioxopropan-2-yl]-1-(C\{60}-I\{h})[5,6]fullerenyl]methanetricarboxylic acid ditert-butyl ester methyl ester

> <PUBCHEM_IUPAC_NAME>
ditert-butyl methyl [7,8,9,10,11,22,23,28,29,42,43,46,47,57,58-pentadecafluoro-41,48-bis[1-methoxy-3-[(2-methylpropan-2-yl)oxy]-2-[(2-methylpropan-2-yl)oxycarbonyl]-1,3-dioxopropan-2-yl](C\{60}-I\{h})[5,6]fulleren-1-yl]methanetricarboxylate

> <PUBCHEM_IUPAC_SYSTEMATIC_NAME>
ditert-butyl methyl [7,8,9,10,11,22,23,28,29,42,43,46,47,57,58-pentadecakis(fluoranyl)-41,48-bis[1-methoxy-3-[(2-methylpropan-2-yl)oxy]-2-[(2-methylpropan-2-yl)oxycarbonyl]-1,3-bis(oxidanylidene)propan-2-yl](C\{60}-I\{h})[5,6]fulleren-1-yl]methanetricarboxylate

> <PUBCHEM_IUPAC_TRADITIONAL_NAME>
[35,46-bis[1,1-bis(tert-butoxycarbonyl)-2-keto-2-methoxy-ethyl]-2,3,4,11,12,16,17,28,29,33,34,47,48,49,50-pentadecafluoro-buckminsterfulleren-1-yl]methanetricarboxylic acid ditert-butyl ester methyl ester

> <PUBCHEM_NIST_INCHI>
InChI=1S/C99H63F15O18/c1-73(2,3)127-67(118)79(64(115)124-19,68(119)128-74(4,5)6)82-46-37-28-22-23-25-27-26-24(22)30-34(28)43-52(46)85(100)87(102)54(43)48-39(30)41-32(26)36-33(27)42-40-31(25)35-29(23)38(37)47(82)53-44(35)55-49(40)84(81(66(117)126-21,71(122)131-77(13,14)15)72(123)132-78(16,17)18)51(42)57-45(36)56-50(41)83(48,80(65(116)125-20,69(120)129-75(7,8)9)70(121)130-76(10,11)12)98(113)93(87,108)60-58-59-61-63-62(60)95(98,110)89(56,104)90(57,105)96(63,111)99(84,114)94(61,109)88(55,103)86(53,101)92(59,107)97(82,112)91(58,85)106/h1-21H3

> <PUBCHEM_NIST_INCHIKEY>
UHBDELNCPFDHBG-UHFFFAOYSA-N

> <PUBCHEM_XLOGP3_AA>
14.5

> <PUBCHEM_EXACT_MASS>
1825.380843

> <PUBCHEM_MOLECULAR_FORMULA>
C99H63F15O18

> <PUBCHEM_MOLECULAR_WEIGHT>
1825.524768

> <PUBCHEM_OPENEYE_CAN_SMILES>
CC(C)(C)OC(=O)C(C(=O)OC)(C(=O)OC(C)(C)C)C12C3=C4C5=C6C7=C8C9=C5C5=C3C3=C%10C%11=C%12C%13=C(C9=C%115)C5=C8C8=C9C%11=C%14C%15=C(C%13=C5%11)C5=C%11C%15(C%13(C%15(C%16=C%17C%18=C%19C%20=C%16C%13(C%14(C9(C%20(C(C87C(C(=O)OC)(C(=O)OC(C)(C)C)C(=O)OC(C)(C)C)(C%19(C6(C4(C%18(C1(C%17(C1(C%15(C%11=C(C%10=C%125)C1=C23)F)F)F)F)F)F)F)F)F)F)F)F)F)F)F)C(C(=O)OC)(C(=O)OC(C)(C)C)C(=O)OC(C)(C)C

> <PUBCHEM_OPENEYE_ISO_SMILES>
CC(C)(C)OC(=O)C(C(=O)OC)(C(=O)OC(C)(C)C)C12C3=C4C5=C6C7=C8C9=C5C5=C3C3=C%10C%11=C%12C%13=C(C9=C%115)C5=C8C8=C9C%11=C%14C%15=C(C%13=C5%11)C5=C%11C%15(C%13(C%15(C%16=C%17C%18=C%19C%20=C%16C%13(C%14(C9(C%20(C(C87C(C(=O)OC)(C(=O)OC(C)(C)C)C(=O)OC(C)(C)C)(C%19(C6(C4(C%18(C1(C%17(C1(C%15(C%11=C(C%10=C%125)C1=C23)F)F)F)F)F)F)F)F)F)F)F)F)F)F)F)C(C(=O)OC)(C(=O)OC(C)(C)C)C(=O)OC(C)(C)C

> <PUBCHEM_CACTVS_TPSA>
237

> <PUBCHEM_MONOISOTOPIC_WEIGHT>
1824.377488

> <PUBCHEM_TOTAL_CHARGE>
0

> <PUBCHEM_HEAVY_ATOM_COUNT>
132

> <PUBCHEM_ATOM_DEF_STEREO_COUNT>
0

> <PUBCHEM_ATOM_UDEF_STEREO_COUNT>
12

> <PUBCHEM_BOND_DEF_STEREO_COUNT>
0

> <PUBCHEM_BOND_UDEF_STEREO_COUNT>
0

> <PUBCHEM_ISOTOPIC_ATOM_COUNT>
0

> <PUBCHEM_COMPONENT_COUNT>
1

> <PUBCHEM_CACTVS_TAUTO_COUNT>
1

> <PUBCHEM_COORDINATE_TYPE>
1
3

> <PUBCHEM_BONDANNOTATIONS>
43  10  3
44  11  3
45  12  3
46  13  3
47  14  3
48  15  3
37  4  3
38  5  3
52  53  8
52  55  8
53  56  8
54  55  8
54  57  8
56  57  8
58  64  8
58  70  8
59  65  8
59  71  8
39  6  3
60  66  8
60  72  8
61  67  8
61  70  8
62  68  8
62  71  8
63  69  8
63  72  8
64  73  8
65  74  8
66  75  8
67  76  8
68  77  8
69  78  8
40  7  3
70  82  8
71  83  8
72  84  8
73  74  8
73  85  8
74  86  8
75  76  8
75  87  8
76  88  8
77  78  8
77  89  8
78  90  8
41  8  3
82  85  8
82  88  8
83  86  8
83  89  8
84  87  8
84  90  8
85  91  8
86  92  8
87  93  8
88  94  8
89  95  8
42  9  3
90  96  8
91  92  8
91  94  8
92  95  8
93  94  8
93  96  8
95  96  8

$$$$

